V -t * -v 1.0a5 -a 0
A -t * -n 1 -p 0 -o 0x7fffffff -c 30 -a 1
A -t * -h 1 -m 1073741823 -s 0
n -t * -a 0 -s 0 -S UP -v circle -c black -i black
n -t * -a 1 -s 1 -S UP -v circle -c black -i black
n -t * -a 2 -s 2 -S UP -v circle -c black -i black
l -t * -s 0 -d 1 -S UP -r 100000 -D 0.10000000000000001 -c black
l -t * -s 2 -d 1 -S UP -r 100000 -D 0.10000000000000001 -c black
l -t * -s 2 -d 0 -S UP -r 100000 -D 0.10000000000000001 -c black
+ -t 0.000169788487334637 -s 0 -d 1 -p rtProtoDV -e 3 -c 0 -i 0 -a 0 -x {0.2 1.1 -1 ------- null}
- -t 0.000169788487334637 -s 0 -d 1 -p rtProtoDV -e 3 -c 0 -i 0 -a 0 -x {0.2 1.1 -1 ------- null}
h -t 0.000169788487334637 -s 0 -d 1 -p rtProtoDV -e 3 -c 0 -i 0 -a 0 -x {0.2 1.1 -1 ------- null}
+ -t 0.000169788487334637 -s 0 -d 2 -p rtProtoDV -e 3 -c 0 -i 1 -a 0 -x {0.2 2.2 -1 ------- null}
- -t 0.000169788487334637 -s 0 -d 2 -p rtProtoDV -e 3 -c 0 -i 1 -a 0 -x {0.2 2.2 -1 ------- null}
h -t 0.000169788487334637 -s 0 -d 2 -p rtProtoDV -e 3 -c 0 -i 1 -a 0 -x {0.2 2.2 -1 ------- null}
+ -t 0.00710233021858257 -s 2 -d 0 -p rtProtoDV -e 3 -c 0 -i 2 -a 0 -x {2.2 0.2 -1 ------- null}
- -t 0.00710233021858257 -s 2 -d 0 -p rtProtoDV -e 3 -c 0 -i 2 -a 0 -x {2.2 0.2 -1 ------- null}
h -t 0.00710233021858257 -s 2 -d 0 -p rtProtoDV -e 3 -c 0 -i 2 -a 0 -x {2.2 0.2 -1 ------- null}
+ -t 0.00710233021858257 -s 2 -d 1 -p rtProtoDV -e 3 -c 0 -i 3 -a 0 -x {2.2 1.1 -1 ------- null}
- -t 0.00710233021858257 -s 2 -d 1 -p rtProtoDV -e 3 -c 0 -i 3 -a 0 -x {2.2 1.1 -1 ------- null}
h -t 0.00710233021858257 -s 2 -d 1 -p rtProtoDV -e 3 -c 0 -i 3 -a 0 -x {2.2 1.1 -1 ------- null}
r -t 0.100409788487335 -s 0 -d 1 -p rtProtoDV -e 3 -c 0 -i 0 -a 0 -x {0.2 1.1 -1 ------- null}
+ -t 0.100409788487335 -s 1 -d 0 -p rtProtoDV -e 3 -c 0 -i 4 -a 0 -x {1.1 0.2 -1 ------- null}
- -t 0.100409788487335 -s 1 -d 0 -p rtProtoDV -e 3 -c 0 -i 4 -a 0 -x {1.1 0.2 -1 ------- null}
h -t 0.100409788487335 -s 1 -d 0 -p rtProtoDV -e 3 -c 0 -i 4 -a 0 -x {1.1 0.2 -1 ------- null}
+ -t 0.100409788487335 -s 1 -d 0 -p rtProtoDV -e 3 -c 0 -i 5 -a 0 -x {1.1 2.2 -1 ------- null}
r -t 0.100409788487335 -s 0 -d 2 -p rtProtoDV -e 3 -c 0 -i 1 -a 0 -x {0.2 2.2 -1 ------- null}
+ -t 0.100409788487335 -s 2 -d 0 -p rtProtoDV -e 3 -c 0 -i 6 -a 0 -x {2.2 0.2 -1 ------- null}
- -t 0.100409788487335 -s 2 -d 0 -p rtProtoDV -e 3 -c 0 -i 6 -a 0 -x {2.2 0.2 -1 ------- null}
h -t 0.100409788487335 -s 2 -d 0 -p rtProtoDV -e 3 -c 0 -i 6 -a 0 -x {2.2 0.2 -1 ------- null}
+ -t 0.100409788487335 -s 2 -d 0 -p rtProtoDV -e 3 -c 0 -i 7 -a 0 -x {2.2 1.1 -1 ------- null}
- -t 0.100649788487335 -s 1 -d 0 -p rtProtoDV -e 3 -c 0 -i 5 -a 0 -x {1.1 2.2 -1 ------- null}
h -t 0.100649788487335 -s 1 -d 0 -p rtProtoDV -e 3 -c 0 -i 5 -a 0 -x {1.1 2.2 -1 ------- null}
- -t 0.100649788487335 -s 2 -d 0 -p rtProtoDV -e 3 -c 0 -i 7 -a 0 -x {2.2 1.1 -1 ------- null}
h -t 0.100649788487335 -s 2 -d 0 -p rtProtoDV -e 3 -c 0 -i 7 -a 0 -x {2.2 1.1 -1 ------- null}
r -t 0.107342330218583 -s 2 -d 0 -p rtProtoDV -e 3 -c 0 -i 2 -a 0 -x {2.2 0.2 -1 ------- null}
+ -t 0.107342330218583 -s 0 -d 2 -p rtProtoDV -e 3 -c 0 -i 8 -a 0 -x {0.2 1.1 -1 ------- null}
- -t 0.107342330218583 -s 0 -d 2 -p rtProtoDV -e 3 -c 0 -i 8 -a 0 -x {0.2 1.1 -1 ------- null}
h -t 0.107342330218583 -s 0 -d 2 -p rtProtoDV -e 3 -c 0 -i 8 -a 0 -x {0.2 1.1 -1 ------- null}
+ -t 0.107342330218583 -s 0 -d 2 -p rtProtoDV -e 3 -c 0 -i 9 -a 0 -x {0.2 2.2 -1 ------- null}
r -t 0.107342330218583 -s 2 -d 1 -p rtProtoDV -e 3 -c 0 -i 3 -a 0 -x {2.2 1.1 -1 ------- null}
+ -t 0.107342330218583 -s 1 -d 0 -p rtProtoDV -e 3 -c 0 -i 10 -a 0 -x {1.1 0.2 -1 ------- null}
- -t 0.107342330218583 -s 1 -d 0 -p rtProtoDV -e 3 -c 0 -i 10 -a 0 -x {1.1 0.2 -1 ------- null}
h -t 0.107342330218583 -s 1 -d 0 -p rtProtoDV -e 3 -c 0 -i 10 -a 0 -x {1.1 0.2 -1 ------- null}
+ -t 0.107342330218583 -s 1 -d 2 -p rtProtoDV -e 3 -c 0 -i 11 -a 0 -x {1.1 2.2 -1 ------- null}
- -t 0.107342330218583 -s 1 -d 2 -p rtProtoDV -e 3 -c 0 -i 11 -a 0 -x {1.1 2.2 -1 ------- null}
h -t 0.107342330218583 -s 1 -d 2 -p rtProtoDV -e 3 -c 0 -i 11 -a 0 -x {1.1 2.2 -1 ------- null}
- -t 0.107582330218583 -s 0 -d 2 -p rtProtoDV -e 3 -c 0 -i 9 -a 0 -x {0.2 2.2 -1 ------- null}
h -t 0.107582330218583 -s 0 -d 2 -p rtProtoDV -e 3 -c 0 -i 9 -a 0 -x {0.2 2.2 -1 ------- null}
r -t 0.200649788487335 -s 1 -d 0 -p rtProtoDV -e 3 -c 0 -i 4 -a 0 -x {1.1 0.2 -1 ------- null}
+ -t 0.200649788487335 -s 0 -d 1 -p rtProtoDV -e 3 -c 0 -i 12 -a 0 -x {0.2 1.1 -1 ------- null}
- -t 0.200649788487335 -s 0 -d 1 -p rtProtoDV -e 3 -c 0 -i 12 -a 0 -x {0.2 1.1 -1 ------- null}
h -t 0.200649788487335 -s 0 -d 1 -p rtProtoDV -e 3 -c 0 -i 12 -a 0 -x {0.2 1.1 -1 ------- null}
+ -t 0.200649788487335 -s 0 -d 2 -p rtProtoDV -e 3 -c 0 -i 13 -a 0 -x {0.2 2.2 -1 ------- null}
- -t 0.200649788487335 -s 0 -d 2 -p rtProtoDV -e 3 -c 0 -i 13 -a 0 -x {0.2 2.2 -1 ------- null}
h -t 0.200649788487335 -s 0 -d 2 -p rtProtoDV -e 3 -c 0 -i 13 -a 0 -x {0.2 2.2 -1 ------- null}
r -t 0.200649788487335 -s 2 -d 0 -p rtProtoDV -e 3 -c 0 -i 6 -a 0 -x {2.2 0.2 -1 ------- null}
r -t 0.200889788487335 -s 1 -d 0 -p rtProtoDV -e 3 -c 0 -i 5 -a 0 -x {1.1 2.2 -1 ------- null}
+ -t 0.200889788487335 -s 0 -d 2 -p rtProtoDV -e 3 -c 0 -i 5 -a 0 -x {1.1 2.2 -1 ------- null}
r -t 0.200889788487335 -s 2 -d 0 -p rtProtoDV -e 3 -c 0 -i 7 -a 0 -x {2.2 1.1 -1 ------- null}
+ -t 0.200889788487335 -s 0 -d 1 -p rtProtoDV -e 3 -c 0 -i 7 -a 0 -x {2.2 1.1 -1 ------- null}
- -t 0.200889788487335 -s 0 -d 1 -p rtProtoDV -e 3 -c 0 -i 7 -a 0 -x {2.2 1.1 -1 ------- null}
h -t 0.200889788487335 -s 0 -d 1 -p rtProtoDV -e 3 -c 0 -i 7 -a 0 -x {2.2 1.1 -1 ------- null}
- -t 0.200889788487335 -s 0 -d 2 -p rtProtoDV -e 3 -c 0 -i 5 -a 0 -x {1.1 2.2 -1 ------- null}
h -t 0.200889788487335 -s 0 -d 2 -p rtProtoDV -e 3 -c 0 -i 5 -a 0 -x {1.1 2.2 -1 ------- null}
r -t 0.207582330218583 -s 0 -d 2 -p rtProtoDV -e 3 -c 0 -i 8 -a 0 -x {0.2 1.1 -1 ------- null}
+ -t 0.207582330218583 -s 2 -d 0 -p rtProtoDV -e 3 -c 0 -i 8 -a 0 -x {0.2 1.1 -1 ------- null}
- -t 0.207582330218583 -s 2 -d 0 -p rtProtoDV -e 3 -c 0 -i 8 -a 0 -x {0.2 1.1 -1 ------- null}
h -t 0.207582330218583 -s 2 -d 0 -p rtProtoDV -e 3 -c 0 -i 8 -a 0 -x {0.2 1.1 -1 ------- null}
r -t 0.207582330218583 -s 1 -d 0 -p rtProtoDV -e 3 -c 0 -i 10 -a 0 -x {1.1 0.2 -1 ------- null}
r -t 0.207582330218583 -s 1 -d 2 -p rtProtoDV -e 3 -c 0 -i 11 -a 0 -x {1.1 2.2 -1 ------- null}
+ -t 0.207582330218583 -s 2 -d 0 -p rtProtoDV -e 3 -c 0 -i 14 -a 0 -x {2.2 0.2 -1 ------- null}
+ -t 0.207582330218583 -s 2 -d 1 -p rtProtoDV -e 3 -c 0 -i 15 -a 0 -x {2.2 1.1 -1 ------- null}
- -t 0.207582330218583 -s 2 -d 1 -p rtProtoDV -e 3 -c 0 -i 15 -a 0 -x {2.2 1.1 -1 ------- null}
h -t 0.207582330218583 -s 2 -d 1 -p rtProtoDV -e 3 -c 0 -i 15 -a 0 -x {2.2 1.1 -1 ------- null}
- -t 0.207822330218583 -s 2 -d 0 -p rtProtoDV -e 3 -c 0 -i 14 -a 0 -x {2.2 0.2 -1 ------- null}
h -t 0.207822330218583 -s 2 -d 0 -p rtProtoDV -e 3 -c 0 -i 14 -a 0 -x {2.2 0.2 -1 ------- null}
r -t 0.207822330218583 -s 0 -d 2 -p rtProtoDV -e 3 -c 0 -i 9 -a 0 -x {0.2 2.2 -1 ------- null}
+ -t 0.277940357931862 -s 1 -d 0 -p rtProtoDV -e 3 -c 0 -i 16 -a 0 -x {1.1 0.2 -1 ------- null}
- -t 0.277940357931862 -s 1 -d 0 -p rtProtoDV -e 3 -c 0 -i 16 -a 0 -x {1.1 0.2 -1 ------- null}
h -t 0.277940357931862 -s 1 -d 0 -p rtProtoDV -e 3 -c 0 -i 16 -a 0 -x {1.1 0.2 -1 ------- null}
+ -t 0.277940357931862 -s 1 -d 2 -p rtProtoDV -e 3 -c 0 -i 17 -a 0 -x {1.1 2.2 -1 ------- null}
- -t 0.277940357931862 -s 1 -d 2 -p rtProtoDV -e 3 -c 0 -i 17 -a 0 -x {1.1 2.2 -1 ------- null}
h -t 0.277940357931862 -s 1 -d 2 -p rtProtoDV -e 3 -c 0 -i 17 -a 0 -x {1.1 2.2 -1 ------- null}
r -t 0.300889788487335 -s 0 -d 1 -p rtProtoDV -e 3 -c 0 -i 12 -a 0 -x {0.2 1.1 -1 ------- null}
r -t 0.300889788487335 -s 0 -d 2 -p rtProtoDV -e 3 -c 0 -i 13 -a 0 -x {0.2 2.2 -1 ------- null}
r -t 0.301129788487335 -s 0 -d 1 -p rtProtoDV -e 3 -c 0 -i 7 -a 0 -x {2.2 1.1 -1 ------- null}
r -t 0.301129788487335 -s 0 -d 2 -p rtProtoDV -e 3 -c 0 -i 5 -a 0 -x {1.1 2.2 -1 ------- null}
r -t 0.307822330218583 -s 2 -d 0 -p rtProtoDV -e 3 -c 0 -i 8 -a 0 -x {0.2 1.1 -1 ------- null}
+ -t 0.307822330218583 -s 0 -d 1 -p rtProtoDV -e 3 -c 0 -i 8 -a 0 -x {0.2 1.1 -1 ------- null}
- -t 0.307822330218583 -s 0 -d 1 -p rtProtoDV -e 3 -c 0 -i 8 -a 0 -x {0.2 1.1 -1 ------- null}
h -t 0.307822330218583 -s 0 -d 1 -p rtProtoDV -e 3 -c 0 -i 8 -a 0 -x {0.2 1.1 -1 ------- null}
r -t 0.307822330218583 -s 2 -d 1 -p rtProtoDV -e 3 -c 0 -i 15 -a 0 -x {2.2 1.1 -1 ------- null}
r -t 0.308062330218583 -s 2 -d 0 -p rtProtoDV -e 3 -c 0 -i 14 -a 0 -x {2.2 0.2 -1 ------- null}
r -t 0.378180357931862 -s 1 -d 0 -p rtProtoDV -e 3 -c 0 -i 16 -a 0 -x {1.1 0.2 -1 ------- null}
r -t 0.378180357931862 -s 1 -d 2 -p rtProtoDV -e 3 -c 0 -i 17 -a 0 -x {1.1 2.2 -1 ------- null}
r -t 0.408062330218583 -s 0 -d 1 -p rtProtoDV -e 3 -c 0 -i 8 -a 0 -x {0.2 1.1 -1 ------- null}
+ -t 0.5 -s 0 -d 2 -p cbr -e 500 -c 0 -i 18 -a 0 -x {0.0 2.0 0 ------- null}
- -t 0.5 -s 0 -d 2 -p cbr -e 500 -c 0 -i 18 -a 0 -x {0.0 2.0 0 ------- null}
h -t 0.5 -s 0 -d 2 -p cbr -e 500 -c 0 -i 18 -a 0 -x {0.0 2.0 -1 ------- null}
+ -t 0.6 -s 0 -d 2 -p cbr -e 500 -c 0 -i 19 -a 0 -x {0.0 2.0 1 ------- null}
- -t 0.6 -s 0 -d 2 -p cbr -e 500 -c 0 -i 19 -a 0 -x {0.0 2.0 1 ------- null}
h -t 0.6 -s 0 -d 2 -p cbr -e 500 -c 0 -i 19 -a 0 -x {0.0 2.0 -1 ------- null}
r -t 0.64 -s 0 -d 2 -p cbr -e 500 -c 0 -i 18 -a 0 -x {0.0 2.0 0 ------- null}
+ -t 0.7 -s 0 -d 2 -p cbr -e 500 -c 0 -i 20 -a 0 -x {0.0 2.0 2 ------- null}
- -t 0.7 -s 0 -d 2 -p cbr -e 500 -c 0 -i 20 -a 0 -x {0.0 2.0 2 ------- null}
h -t 0.7 -s 0 -d 2 -p cbr -e 500 -c 0 -i 20 -a 0 -x {0.0 2.0 -1 ------- null}
r -t 0.74 -s 0 -d 2 -p cbr -e 500 -c 0 -i 19 -a 0 -x {0.0 2.0 1 ------- null}
+ -t 0.8 -s 0 -d 2 -p cbr -e 500 -c 0 -i 21 -a 0 -x {0.0 2.0 3 ------- null}
- -t 0.8 -s 0 -d 2 -p cbr -e 500 -c 0 -i 21 -a 0 -x {0.0 2.0 3 ------- null}
h -t 0.8 -s 0 -d 2 -p cbr -e 500 -c 0 -i 21 -a 0 -x {0.0 2.0 -1 ------- null}
r -t 0.84 -s 0 -d 2 -p cbr -e 500 -c 0 -i 20 -a 0 -x {0.0 2.0 2 ------- null}
+ -t 0.9 -s 0 -d 2 -p cbr -e 500 -c 0 -i 22 -a 0 -x {0.0 2.0 4 ------- null}
- -t 0.9 -s 0 -d 2 -p cbr -e 500 -c 0 -i 22 -a 0 -x {0.0 2.0 4 ------- null}
h -t 0.9 -s 0 -d 2 -p cbr -e 500 -c 0 -i 22 -a 0 -x {0.0 2.0 -1 ------- null}
r -t 0.94 -s 0 -d 2 -p cbr -e 500 -c 0 -i 21 -a 0 -x {0.0 2.0 3 ------- null}
+ -t 1 -s 0 -d 2 -p cbr -e 500 -c 0 -i 23 -a 0 -x {0.0 2.0 5 ------- null}
- -t 1 -s 0 -d 2 -p cbr -e 500 -c 0 -i 23 -a 0 -x {0.0 2.0 5 ------- null}
h -t 1 -s 0 -d 2 -p cbr -e 500 -c 0 -i 23 -a 0 -x {0.0 2.0 -1 ------- null}
l -t 1 -s 2 -d 0 -S DOWN
v -t 1 link-down 1 2 0
l -t 1 -s 2 -d 0 -S DOWN
v -t 1 link-down 1 2 0
d -t 1 -s 0 -d 2 -p cbr -e 500 -c 0 -i 22 -a 0 -x {0.0 2.0 4 ------- null}
d -t 1 -s 0 -d 2 -p cbr -e 500 -c 0 -i 23 -a 0 -x {0.0 2.0 5 ------- null}
l -t 1 -s 0 -d 2 -S DOWN
v -t 1 link-down 1 0 2
l -t 1 -s 0 -d 2 -S DOWN
v -t 1 link-down 1 0 2
+ -t 1 -s 0 -d 1 -p rtProtoDV -e 3 -c 0 -i 24 -a 0 -x {0.2 1.1 -1 ------- null}
- -t 1 -s 0 -d 1 -p rtProtoDV -e 3 -c 0 -i 24 -a 0 -x {0.2 1.1 -1 ------- null}
h -t 1 -s 0 -d 1 -p rtProtoDV -e 3 -c 0 -i 24 -a 0 -x {0.2 1.1 -1 ------- null}
+ -t 1 -s 2 -d 1 -p rtProtoDV -e 3 -c 0 -i 25 -a 0 -x {2.2 1.1 -1 ------- null}
- -t 1 -s 2 -d 1 -p rtProtoDV -e 3 -c 0 -i 25 -a 0 -x {2.2 1.1 -1 ------- null}
h -t 1 -s 2 -d 1 -p rtProtoDV -e 3 -c 0 -i 25 -a 0 -x {2.2 1.1 -1 ------- null}
+ -t 1.1 -s 0 -d 1 -p cbr -e 500 -c 0 -i 26 -a 0 -x {0.0 2.0 6 ------- null}
- -t 1.1 -s 0 -d 1 -p cbr -e 500 -c 0 -i 26 -a 0 -x {0.0 2.0 6 ------- null}
h -t 1.1 -s 0 -d 1 -p cbr -e 500 -c 0 -i 26 -a 0 -x {0.0 2.0 -1 ------- null}
r -t 1.10024 -s 0 -d 1 -p rtProtoDV -e 3 -c 0 -i 24 -a 0 -x {0.2 1.1 -1 ------- null}
r -t 1.10024 -s 2 -d 1 -p rtProtoDV -e 3 -c 0 -i 25 -a 0 -x {2.2 1.1 -1 ------- null}
+ -t 1.2 -s 0 -d 1 -p cbr -e 500 -c 0 -i 27 -a 0 -x {0.0 2.0 7 ------- null}
- -t 1.2 -s 0 -d 1 -p cbr -e 500 -c 0 -i 27 -a 0 -x {0.0 2.0 7 ------- null}
h -t 1.2 -s 0 -d 1 -p cbr -e 500 -c 0 -i 27 -a 0 -x {0.0 2.0 -1 ------- null}
r -t 1.24 -s 0 -d 1 -p cbr -e 500 -c 0 -i 26 -a 0 -x {0.0 2.0 6 ------- null}
+ -t 1.24 -s 1 -d 2 -p cbr -e 500 -c 0 -i 26 -a 0 -x {0.0 2.0 6 ------- null}
- -t 1.24 -s 1 -d 2 -p cbr -e 500 -c 0 -i 26 -a 0 -x {0.0 2.0 6 ------- null}
h -t 1.24 -s 1 -d 2 -p cbr -e 500 -c 0 -i 26 -a 0 -x {0.0 2.0 -1 ------- null}
+ -t 1.3 -s 0 -d 1 -p cbr -e 500 -c 0 -i 28 -a 0 -x {0.0 2.0 8 ------- null}
- -t 1.3 -s 0 -d 1 -p cbr -e 500 -c 0 -i 28 -a 0 -x {0.0 2.0 8 ------- null}
h -t 1.3 -s 0 -d 1 -p cbr -e 500 -c 0 -i 28 -a 0 -x {0.0 2.0 -1 ------- null}
r -t 1.34 -s 0 -d 1 -p cbr -e 500 -c 0 -i 27 -a 0 -x {0.0 2.0 7 ------- null}
+ -t 1.34 -s 1 -d 2 -p cbr -e 500 -c 0 -i 27 -a 0 -x {0.0 2.0 7 ------- null}
- -t 1.34 -s 1 -d 2 -p cbr -e 500 -c 0 -i 27 -a 0 -x {0.0 2.0 7 ------- null}
h -t 1.34 -s 1 -d 2 -p cbr -e 500 -c 0 -i 27 -a 0 -x {0.0 2.0 -1 ------- null}
r -t 1.38 -s 1 -d 2 -p cbr -e 500 -c 0 -i 26 -a 0 -x {0.0 2.0 6 ------- null}
+ -t 1.4 -s 0 -d 1 -p cbr -e 500 -c 0 -i 29 -a 0 -x {0.0 2.0 9 ------- null}
- -t 1.4 -s 0 -d 1 -p cbr -e 500 -c 0 -i 29 -a 0 -x {0.0 2.0 9 ------- null}
h -t 1.4 -s 0 -d 1 -p cbr -e 500 -c 0 -i 29 -a 0 -x {0.0 2.0 -1 ------- null}
r -t 1.44 -s 0 -d 1 -p cbr -e 500 -c 0 -i 28 -a 0 -x {0.0 2.0 8 ------- null}
+ -t 1.44 -s 1 -d 2 -p cbr -e 500 -c 0 -i 28 -a 0 -x {0.0 2.0 8 ------- null}
- -t 1.44 -s 1 -d 2 -p cbr -e 500 -c 0 -i 28 -a 0 -x {0.0 2.0 8 ------- null}
h -t 1.44 -s 1 -d 2 -p cbr -e 500 -c 0 -i 28 -a 0 -x {0.0 2.0 -1 ------- null}
r -t 1.48 -s 1 -d 2 -p cbr -e 500 -c 0 -i 27 -a 0 -x {0.0 2.0 7 ------- null}
+ -t 1.5 -s 0 -d 1 -p cbr -e 500 -c 0 -i 30 -a 0 -x {0.0 2.0 10 ------- null}
- -t 1.5 -s 0 -d 1 -p cbr -e 500 -c 0 -i 30 -a 0 -x {0.0 2.0 10 ------- null}
h -t 1.5 -s 0 -d 1 -p cbr -e 500 -c 0 -i 30 -a 0 -x {0.0 2.0 -1 ------- null}
r -t 1.54 -s 0 -d 1 -p cbr -e 500 -c 0 -i 29 -a 0 -x {0.0 2.0 9 ------- null}
+ -t 1.54 -s 1 -d 2 -p cbr -e 500 -c 0 -i 29 -a 0 -x {0.0 2.0 9 ------- null}
- -t 1.54 -s 1 -d 2 -p cbr -e 500 -c 0 -i 29 -a 0 -x {0.0 2.0 9 ------- null}
h -t 1.54 -s 1 -d 2 -p cbr -e 500 -c 0 -i 29 -a 0 -x {0.0 2.0 -1 ------- null}
r -t 1.58 -s 1 -d 2 -p cbr -e 500 -c 0 -i 28 -a 0 -x {0.0 2.0 8 ------- null}
+ -t 1.6 -s 0 -d 1 -p cbr -e 500 -c 0 -i 31 -a 0 -x {0.0 2.0 11 ------- null}
- -t 1.6 -s 0 -d 1 -p cbr -e 500 -c 0 -i 31 -a 0 -x {0.0 2.0 11 ------- null}
h -t 1.6 -s 0 -d 1 -p cbr -e 500 -c 0 -i 31 -a 0 -x {0.0 2.0 -1 ------- null}
r -t 1.64 -s 0 -d 1 -p cbr -e 500 -c 0 -i 30 -a 0 -x {0.0 2.0 10 ------- null}
+ -t 1.64 -s 1 -d 2 -p cbr -e 500 -c 0 -i 30 -a 0 -x {0.0 2.0 10 ------- null}
- -t 1.64 -s 1 -d 2 -p cbr -e 500 -c 0 -i 30 -a 0 -x {0.0 2.0 10 ------- null}
h -t 1.64 -s 1 -d 2 -p cbr -e 500 -c 0 -i 30 -a 0 -x {0.0 2.0 -1 ------- null}
r -t 1.68 -s 1 -d 2 -p cbr -e 500 -c 0 -i 29 -a 0 -x {0.0 2.0 9 ------- null}
+ -t 1.7 -s 0 -d 1 -p cbr -e 500 -c 0 -i 32 -a 0 -x {0.0 2.0 12 ------- null}
- -t 1.7 -s 0 -d 1 -p cbr -e 500 -c 0 -i 32 -a 0 -x {0.0 2.0 12 ------- null}
h -t 1.7 -s 0 -d 1 -p cbr -e 500 -c 0 -i 32 -a 0 -x {0.0 2.0 -1 ------- null}
r -t 1.74 -s 0 -d 1 -p cbr -e 500 -c 0 -i 31 -a 0 -x {0.0 2.0 11 ------- null}
+ -t 1.74 -s 1 -d 2 -p cbr -e 500 -c 0 -i 31 -a 0 -x {0.0 2.0 11 ------- null}
- -t 1.74 -s 1 -d 2 -p cbr -e 500 -c 0 -i 31 -a 0 -x {0.0 2.0 11 ------- null}
h -t 1.74 -s 1 -d 2 -p cbr -e 500 -c 0 -i 31 -a 0 -x {0.0 2.0 -1 ------- null}
r -t 1.78 -s 1 -d 2 -p cbr -e 500 -c 0 -i 30 -a 0 -x {0.0 2.0 10 ------- null}
+ -t 1.8 -s 0 -d 1 -p cbr -e 500 -c 0 -i 33 -a 0 -x {0.0 2.0 13 ------- null}
- -t 1.8 -s 0 -d 1 -p cbr -e 500 -c 0 -i 33 -a 0 -x {0.0 2.0 13 ------- null}
h -t 1.8 -s 0 -d 1 -p cbr -e 500 -c 0 -i 33 -a 0 -x {0.0 2.0 -1 ------- null}
+ -t 1.8354188569055 -s 0 -d 1 -p rtProtoDV -e 3 -c 0 -i 34 -a 0 -x {0.2 1.1 -1 ------- null}
r -t 1.84 -s 0 -d 1 -p cbr -e 500 -c 0 -i 32 -a 0 -x {0.0 2.0 12 ------- null}
+ -t 1.84 -s 1 -d 2 -p cbr -e 500 -c 0 -i 32 -a 0 -x {0.0 2.0 12 ------- null}
- -t 1.84 -s 1 -d 2 -p cbr -e 500 -c 0 -i 32 -a 0 -x {0.0 2.0 12 ------- null}
h -t 1.84 -s 1 -d 2 -p cbr -e 500 -c 0 -i 32 -a 0 -x {0.0 2.0 -1 ------- null}
- -t 1.84 -s 0 -d 1 -p rtProtoDV -e 3 -c 0 -i 34 -a 0 -x {0.2 1.1 -1 ------- null}
h -t 1.84 -s 0 -d 1 -p rtProtoDV -e 3 -c 0 -i 34 -a 0 -x {0.2 1.1 -1 ------- null}
r -t 1.88 -s 1 -d 2 -p cbr -e 500 -c 0 -i 31 -a 0 -x {0.0 2.0 11 ------- null}
+ -t 1.9 -s 0 -d 1 -p cbr -e 500 -c 0 -i 35 -a 0 -x {0.0 2.0 14 ------- null}
- -t 1.9 -s 0 -d 1 -p cbr -e 500 -c 0 -i 35 -a 0 -x {0.0 2.0 14 ------- null}
h -t 1.9 -s 0 -d 1 -p cbr -e 500 -c 0 -i 35 -a 0 -x {0.0 2.0 -1 ------- null}
r -t 1.94 -s 0 -d 1 -p cbr -e 500 -c 0 -i 33 -a 0 -x {0.0 2.0 13 ------- null}
+ -t 1.94 -s 1 -d 2 -p cbr -e 500 -c 0 -i 33 -a 0 -x {0.0 2.0 13 ------- null}
- -t 1.94 -s 1 -d 2 -p cbr -e 500 -c 0 -i 33 -a 0 -x {0.0 2.0 13 ------- null}
h -t 1.94 -s 1 -d 2 -p cbr -e 500 -c 0 -i 33 -a 0 -x {0.0 2.0 -1 ------- null}
r -t 1.94024 -s 0 -d 1 -p rtProtoDV -e 3 -c 0 -i 34 -a 0 -x {0.2 1.1 -1 ------- null}
r -t 1.98 -s 1 -d 2 -p cbr -e 500 -c 0 -i 32 -a 0 -x {0.0 2.0 12 ------- null}
+ -t 1.98357168295587 -s 2 -d 1 -p rtProtoDV -e 3 -c 0 -i 36 -a 0 -x {2.2 1.1 -1 ------- null}
- -t 1.98357168295587 -s 2 -d 1 -p rtProtoDV -e 3 -c 0 -i 36 -a 0 -x {2.2 1.1 -1 ------- null}
h -t 1.98357168295587 -s 2 -d 1 -p rtProtoDV -e 3 -c 0 -i 36 -a 0 -x {2.2 1.1 -1 ------- null}
l -t 2 -s 2 -d 0 -S UP
v -t 2 link-up 2 2 0
l -t 2 -s 2 -d 0 -S UP
v -t 2 link-up 2 2 0
l -t 2 -s 0 -d 2 -S UP
v -t 2 link-up 2 0 2
l -t 2 -s 0 -d 2 -S UP
v -t 2 link-up 2 0 2
+ -t 2 -s 0 -d 1 -p rtProtoDV -e 3 -c 0 -i 37 -a 0 -x {0.2 2.2 -1 ------- null}
- -t 2 -s 0 -d 1 -p rtProtoDV -e 3 -c 0 -i 37 -a 0 -x {0.2 2.2 -1 ------- null}
h -t 2 -s 0 -d 1 -p rtProtoDV -e 3 -c 0 -i 37 -a 0 -x {0.2 2.2 -1 ------- null}
+ -t 2 -s 2 -d 1 -p rtProtoDV -e 3 -c 0 -i 38 -a 0 -x {2.2 0.2 -1 ------- null}
- -t 2 -s 2 -d 1 -p rtProtoDV -e 3 -c 0 -i 38 -a 0 -x {2.2 0.2 -1 ------- null}
h -t 2 -s 2 -d 1 -p rtProtoDV -e 3 -c 0 -i 38 -a 0 -x {2.2 0.2 -1 ------- null}
+ -t 2 -s 0 -d 1 -p cbr -e 500 -c 0 -i 39 -a 0 -x {0.0 2.0 15 ------- null}
- -t 2.00024 -s 0 -d 1 -p cbr -e 500 -c 0 -i 39 -a 0 -x {0.0 2.0 15 ------- null}
h -t 2.00024 -s 0 -d 1 -p cbr -e 500 -c 0 -i 39 -a 0 -x {0.0 2.0 -1 ------- null}
r -t 2.04 -s 0 -d 1 -p cbr -e 500 -c 0 -i 35 -a 0 -x {0.0 2.0 14 ------- null}
+ -t 2.04 -s 1 -d 2 -p cbr -e 500 -c 0 -i 35 -a 0 -x {0.0 2.0 14 ------- null}
- -t 2.04 -s 1 -d 2 -p cbr -e 500 -c 0 -i 35 -a 0 -x {0.0 2.0 14 ------- null}
h -t 2.04 -s 1 -d 2 -p cbr -e 500 -c 0 -i 35 -a 0 -x {0.0 2.0 -1 ------- null}
r -t 2.08 -s 1 -d 2 -p cbr -e 500 -c 0 -i 33 -a 0 -x {0.0 2.0 13 ------- null}
r -t 2.08381168295587 -s 2 -d 1 -p rtProtoDV -e 3 -c 0 -i 36 -a 0 -x {2.2 1.1 -1 ------- null}
+ -t 2.1 -s 0 -d 1 -p cbr -e 500 -c 0 -i 40 -a 0 -x {0.0 2.0 16 ------- null}
- -t 2.1 -s 0 -d 1 -p cbr -e 500 -c 0 -i 40 -a 0 -x {0.0 2.0 16 ------- null}
h -t 2.1 -s 0 -d 1 -p cbr -e 500 -c 0 -i 40 -a 0 -x {0.0 2.0 -1 ------- null}
r -t 2.10024 -s 0 -d 1 -p rtProtoDV -e 3 -c 0 -i 37 -a 0 -x {0.2 2.2 -1 ------- null}
+ -t 2.10024 -s 1 -d 2 -p rtProtoDV -e 3 -c 0 -i 37 -a 0 -x {0.2 2.2 -1 ------- null}
- -t 2.10024 -s 1 -d 2 -p rtProtoDV -e 3 -c 0 -i 37 -a 0 -x {0.2 2.2 -1 ------- null}
h -t 2.10024 -s 1 -d 2 -p rtProtoDV -e 3 -c 0 -i 37 -a 0 -x {0.2 2.2 -1 ------- null}
r -t 2.10024 -s 2 -d 1 -p rtProtoDV -e 3 -c 0 -i 38 -a 0 -x {2.2 0.2 -1 ------- null}
+ -t 2.10024 -s 1 -d 0 -p rtProtoDV -e 3 -c 0 -i 38 -a 0 -x {2.2 0.2 -1 ------- null}
- -t 2.10024 -s 1 -d 0 -p rtProtoDV -e 3 -c 0 -i 38 -a 0 -x {2.2 0.2 -1 ------- null}
h -t 2.10024 -s 1 -d 0 -p rtProtoDV -e 3 -c 0 -i 38 -a 0 -x {2.2 0.2 -1 ------- null}
r -t 2.14024 -s 0 -d 1 -p cbr -e 500 -c 0 -i 39 -a 0 -x {0.0 2.0 15 ------- null}
+ -t 2.14024 -s 1 -d 2 -p cbr -e 500 -c 0 -i 39 -a 0 -x {0.0 2.0 15 ------- null}
- -t 2.14024 -s 1 -d 2 -p cbr -e 500 -c 0 -i 39 -a 0 -x {0.0 2.0 15 ------- null}
h -t 2.14024 -s 1 -d 2 -p cbr -e 500 -c 0 -i 39 -a 0 -x {0.0 2.0 -1 ------- null}
r -t 2.18 -s 1 -d 2 -p cbr -e 500 -c 0 -i 35 -a 0 -x {0.0 2.0 14 ------- null}
+ -t 2.2 -s 0 -d 1 -p cbr -e 500 -c 0 -i 41 -a 0 -x {0.0 2.0 17 ------- null}
- -t 2.2 -s 0 -d 1 -p cbr -e 500 -c 0 -i 41 -a 0 -x {0.0 2.0 17 ------- null}
h -t 2.2 -s 0 -d 1 -p cbr -e 500 -c 0 -i 41 -a 0 -x {0.0 2.0 -1 ------- null}
r -t 2.20048 -s 1 -d 2 -p rtProtoDV -e 3 -c 0 -i 37 -a 0 -x {0.2 2.2 -1 ------- null}
+ -t 2.20048 -s 2 -d 0 -p rtProtoDV -e 3 -c 0 -i 42 -a 0 -x {2.2 0.2 -1 ------- null}
- -t 2.20048 -s 2 -d 0 -p rtProtoDV -e 3 -c 0 -i 42 -a 0 -x {2.2 0.2 -1 ------- null}
h -t 2.20048 -s 2 -d 0 -p rtProtoDV -e 3 -c 0 -i 42 -a 0 -x {2.2 0.2 -1 ------- null}
+ -t 2.20048 -s 2 -d 1 -p rtProtoDV -e 3 -c 0 -i 43 -a 0 -x {2.2 1.1 -1 ------- null}
- -t 2.20048 -s 2 -d 1 -p rtProtoDV -e 3 -c 0 -i 43 -a 0 -x {2.2 1.1 -1 ------- null}
h -t 2.20048 -s 2 -d 1 -p rtProtoDV -e 3 -c 0 -i 43 -a 0 -x {2.2 1.1 -1 ------- null}
r -t 2.20048 -s 1 -d 0 -p rtProtoDV -e 3 -c 0 -i 38 -a 0 -x {2.2 0.2 -1 ------- null}
+ -t 2.20048 -s 0 -d 1 -p rtProtoDV -e 3 -c 0 -i 44 -a 0 -x {0.2 1.1 -1 ------- null}
+ -t 2.20048 -s 0 -d 2 -p rtProtoDV -e 3 -c 0 -i 45 -a 0 -x {0.2 2.2 -1 ------- null}
- -t 2.20048 -s 0 -d 2 -p rtProtoDV -e 3 -c 0 -i 45 -a 0 -x {0.2 2.2 -1 ------- null}
h -t 2.20048 -s 0 -d 2 -p rtProtoDV -e 3 -c 0 -i 45 -a 0 -x {0.2 2.2 -1 ------- null}
r -t 2.24 -s 0 -d 1 -p cbr -e 500 -c 0 -i 40 -a 0 -x {0.0 2.0 16 ------- null}
+ -t 2.24 -s 1 -d 2 -p cbr -e 500 -c 0 -i 40 -a 0 -x {0.0 2.0 16 ------- null}
- -t 2.24 -s 1 -d 2 -p cbr -e 500 -c 0 -i 40 -a 0 -x {0.0 2.0 16 ------- null}
h -t 2.24 -s 1 -d 2 -p cbr -e 500 -c 0 -i 40 -a 0 -x {0.0 2.0 -1 ------- null}
- -t 2.24 -s 0 -d 1 -p rtProtoDV -e 3 -c 0 -i 44 -a 0 -x {0.2 1.1 -1 ------- null}
h -t 2.24 -s 0 -d 1 -p rtProtoDV -e 3 -c 0 -i 44 -a 0 -x {0.2 1.1 -1 ------- null}
r -t 2.28024 -s 1 -d 2 -p cbr -e 500 -c 0 -i 39 -a 0 -x {0.0 2.0 15 ------- null}
+ -t 2.3 -s 0 -d 2 -p cbr -e 500 -c 0 -i 46 -a 0 -x {0.0 2.0 18 ------- null}
- -t 2.3 -s 0 -d 2 -p cbr -e 500 -c 0 -i 46 -a 0 -x {0.0 2.0 18 ------- null}
h -t 2.3 -s 0 -d 2 -p cbr -e 500 -c 0 -i 46 -a 0 -x {0.0 2.0 -1 ------- null}
r -t 2.30072 -s 2 -d 0 -p rtProtoDV -e 3 -c 0 -i 42 -a 0 -x {2.2 0.2 -1 ------- null}
r -t 2.30072 -s 2 -d 1 -p rtProtoDV -e 3 -c 0 -i 43 -a 0 -x {2.2 1.1 -1 ------- null}
r -t 2.30072 -s 0 -d 2 -p rtProtoDV -e 3 -c 0 -i 45 -a 0 -x {0.2 2.2 -1 ------- null}
r -t 2.34 -s 0 -d 1 -p cbr -e 500 -c 0 -i 41 -a 0 -x {0.0 2.0 17 ------- null}
+ -t 2.34 -s 1 -d 2 -p cbr -e 500 -c 0 -i 41 -a 0 -x {0.0 2.0 17 ------- null}
- -t 2.34 -s 1 -d 2 -p cbr -e 500 -c 0 -i 41 -a 0 -x {0.0 2.0 17 ------- null}
h -t 2.34 -s 1 -d 2 -p cbr -e 500 -c 0 -i 41 -a 0 -x {0.0 2.0 -1 ------- null}
r -t 2.34024 -s 0 -d 1 -p rtProtoDV -e 3 -c 0 -i 44 -a 0 -x {0.2 1.1 -1 ------- null}
r -t 2.38 -s 1 -d 2 -p cbr -e 500 -c 0 -i 40 -a 0 -x {0.0 2.0 16 ------- null}
+ -t 2.39760253936872 -s 1 -d 0 -p rtProtoDV -e 3 -c 0 -i 47 -a 0 -x {1.1 0.2 -1 ------- null}
- -t 2.39760253936872 -s 1 -d 0 -p rtProtoDV -e 3 -c 0 -i 47 -a 0 -x {1.1 0.2 -1 ------- null}
h -t 2.39760253936872 -s 1 -d 0 -p rtProtoDV -e 3 -c 0 -i 47 -a 0 -x {1.1 0.2 -1 ------- null}
+ -t 2.39760253936872 -s 1 -d 2 -p rtProtoDV -e 3 -c 0 -i 48 -a 0 -x {1.1 2.2 -1 ------- null}
- -t 2.39760253936872 -s 1 -d 2 -p rtProtoDV -e 3 -c 0 -i 48 -a 0 -x {1.1 2.2 -1 ------- null}
h -t 2.39760253936872 -s 1 -d 2 -p rtProtoDV -e 3 -c 0 -i 48 -a 0 -x {1.1 2.2 -1 ------- null}
+ -t 2.4 -s 0 -d 2 -p cbr -e 500 -c 0 -i 49 -a 0 -x {0.0 2.0 19 ------- null}
- -t 2.4 -s 0 -d 2 -p cbr -e 500 -c 0 -i 49 -a 0 -x {0.0 2.0 19 ------- null}
h -t 2.4 -s 0 -d 2 -p cbr -e 500 -c 0 -i 49 -a 0 -x {0.0 2.0 -1 ------- null}
r -t 2.44 -s 0 -d 2 -p cbr -e 500 -c 0 -i 46 -a 0 -x {0.0 2.0 18 ------- null}
r -t 2.48 -s 1 -d 2 -p cbr -e 500 -c 0 -i 41 -a 0 -x {0.0 2.0 17 ------- null}
r -t 2.49784253936872 -s 1 -d 0 -p rtProtoDV -e 3 -c 0 -i 47 -a 0 -x {1.1 0.2 -1 ------- null}
r -t 2.49784253936872 -s 1 -d 2 -p rtProtoDV -e 3 -c 0 -i 48 -a 0 -x {1.1 2.2 -1 ------- null}
+ -t 2.5 -s 0 -d 2 -p cbr -e 500 -c 0 -i 50 -a 0 -x {0.0 2.0 20 ------- null}
- -t 2.5 -s 0 -d 2 -p cbr -e 500 -c 0 -i 50 -a 0 -x {0.0 2.0 20 ------- null}
h -t 2.5 -s 0 -d 2 -p cbr -e 500 -c 0 -i 50 -a 0 -x {0.0 2.0 -1 ------- null}
r -t 2.54 -s 0 -d 2 -p cbr -e 500 -c 0 -i 49 -a 0 -x {0.0 2.0 19 ------- null}
+ -t 2.6 -s 0 -d 2 -p cbr -e 500 -c 0 -i 51 -a 0 -x {0.0 2.0 21 ------- null}
- -t 2.6 -s 0 -d 2 -p cbr -e 500 -c 0 -i 51 -a 0 -x {0.0 2.0 21 ------- null}
h -t 2.6 -s 0 -d 2 -p cbr -e 500 -c 0 -i 51 -a 0 -x {0.0 2.0 -1 ------- null}
r -t 2.64 -s 0 -d 2 -p cbr -e 500 -c 0 -i 50 -a 0 -x {0.0 2.0 20 ------- null}
+ -t 2.7 -s 0 -d 2 -p cbr -e 500 -c 0 -i 52 -a 0 -x {0.0 2.0 22 ------- null}
- -t 2.7 -s 0 -d 2 -p cbr -e 500 -c 0 -i 52 -a 0 -x {0.0 2.0 22 ------- null}
h -t 2.7 -s 0 -d 2 -p cbr -e 500 -c 0 -i 52 -a 0 -x {0.0 2.0 -1 ------- null}
r -t 2.74 -s 0 -d 2 -p cbr -e 500 -c 0 -i 51 -a 0 -x {0.0 2.0 21 ------- null}
+ -t 2.8 -s 0 -d 2 -p cbr -e 500 -c 0 -i 53 -a 0 -x {0.0 2.0 23 ------- null}
- -t 2.8 -s 0 -d 2 -p cbr -e 500 -c 0 -i 53 -a 0 -x {0.0 2.0 23 ------- null}
h -t 2.8 -s 0 -d 2 -p cbr -e 500 -c 0 -i 53 -a 0 -x {0.0 2.0 -1 ------- null}
r -t 2.84 -s 0 -d 2 -p cbr -e 500 -c 0 -i 52 -a 0 -x {0.0 2.0 22 ------- null}
+ -t 2.9 -s 0 -d 2 -p cbr -e 500 -c 0 -i 54 -a 0 -x {0.0 2.0 24 ------- null}
- -t 2.9 -s 0 -d 2 -p cbr -e 500 -c 0 -i 54 -a 0 -x {0.0 2.0 24 ------- null}
h -t 2.9 -s 0 -d 2 -p cbr -e 500 -c 0 -i 54 -a 0 -x {0.0 2.0 -1 ------- null}
r -t 2.94 -s 0 -d 2 -p cbr -e 500 -c 0 -i 53 -a 0 -x {0.0 2.0 23 ------- null}
+ -t 3 -s 0 -d 2 -p cbr -e 500 -c 0 -i 55 -a 0 -x {0.0 2.0 25 ------- null}
- -t 3 -s 0 -d 2 -p cbr -e 500 -c 0 -i 55 -a 0 -x {0.0 2.0 25 ------- null}
h -t 3 -s 0 -d 2 -p cbr -e 500 -c 0 -i 55 -a 0 -x {0.0 2.0 -1 ------- null}
r -t 3.04 -s 0 -d 2 -p cbr -e 500 -c 0 -i 54 -a 0 -x {0.0 2.0 24 ------- null}
+ -t 3.1 -s 0 -d 2 -p cbr -e 500 -c 0 -i 56 -a 0 -x {0.0 2.0 26 ------- null}
- -t 3.1 -s 0 -d 2 -p cbr -e 500 -c 0 -i 56 -a 0 -x {0.0 2.0 26 ------- null}
h -t 3.1 -s 0 -d 2 -p cbr -e 500 -c 0 -i 56 -a 0 -x {0.0 2.0 -1 ------- null}
r -t 3.14 -s 0 -d 2 -p cbr -e 500 -c 0 -i 55 -a 0 -x {0.0 2.0 25 ------- null}
+ -t 3.2 -s 0 -d 2 -p cbr -e 500 -c 0 -i 57 -a 0 -x {0.0 2.0 27 ------- null}
- -t 3.2 -s 0 -d 2 -p cbr -e 500 -c 0 -i 57 -a 0 -x {0.0 2.0 27 ------- null}
h -t 3.2 -s 0 -d 2 -p cbr -e 500 -c 0 -i 57 -a 0 -x {0.0 2.0 -1 ------- null}
r -t 3.24 -s 0 -d 2 -p cbr -e 500 -c 0 -i 56 -a 0 -x {0.0 2.0 26 ------- null}
+ -t 3.3 -s 0 -d 2 -p cbr -e 500 -c 0 -i 58 -a 0 -x {0.0 2.0 28 ------- null}
- -t 3.3 -s 0 -d 2 -p cbr -e 500 -c 0 -i 58 -a 0 -x {0.0 2.0 28 ------- null}
h -t 3.3 -s 0 -d 2 -p cbr -e 500 -c 0 -i 58 -a 0 -x {0.0 2.0 -1 ------- null}
r -t 3.34 -s 0 -d 2 -p cbr -e 500 -c 0 -i 57 -a 0 -x {0.0 2.0 27 ------- null}
+ -t 3.4 -s 0 -d 2 -p cbr -e 500 -c 0 -i 59 -a 0 -x {0.0 2.0 29 ------- null}
- -t 3.4 -s 0 -d 2 -p cbr -e 500 -c 0 -i 59 -a 0 -x {0.0 2.0 29 ------- null}
h -t 3.4 -s 0 -d 2 -p cbr -e 500 -c 0 -i 59 -a 0 -x {0.0 2.0 -1 ------- null}
r -t 3.44 -s 0 -d 2 -p cbr -e 500 -c 0 -i 58 -a 0 -x {0.0 2.0 28 ------- null}
+ -t 3.5 -s 0 -d 2 -p cbr -e 500 -c 0 -i 60 -a 0 -x {0.0 2.0 30 ------- null}
- -t 3.5 -s 0 -d 2 -p cbr -e 500 -c 0 -i 60 -a 0 -x {0.0 2.0 30 ------- null}
h -t 3.5 -s 0 -d 2 -p cbr -e 500 -c 0 -i 60 -a 0 -x {0.0 2.0 -1 ------- null}
r -t 3.54 -s 0 -d 2 -p cbr -e 500 -c 0 -i 59 -a 0 -x {0.0 2.0 29 ------- null}
+ -t 3.6 -s 0 -d 2 -p cbr -e 500 -c 0 -i 61 -a 0 -x {0.0 2.0 31 ------- null}
- -t 3.6 -s 0 -d 2 -p cbr -e 500 -c 0 -i 61 -a 0 -x {0.0 2.0 31 ------- null}
h -t 3.6 -s 0 -d 2 -p cbr -e 500 -c 0 -i 61 -a 0 -x {0.0 2.0 -1 ------- null}
r -t 3.64 -s 0 -d 2 -p cbr -e 500 -c 0 -i 60 -a 0 -x {0.0 2.0 30 ------- null}
+ -t 3.7 -s 0 -d 2 -p cbr -e 500 -c 0 -i 62 -a 0 -x {0.0 2.0 32 ------- null}
- -t 3.7 -s 0 -d 2 -p cbr -e 500 -c 0 -i 62 -a 0 -x {0.0 2.0 32 ------- null}
h -t 3.7 -s 0 -d 2 -p cbr -e 500 -c 0 -i 62 -a 0 -x {0.0 2.0 -1 ------- null}
r -t 3.74 -s 0 -d 2 -p cbr -e 500 -c 0 -i 61 -a 0 -x {0.0 2.0 31 ------- null}
+ -t 3.76060356561123 -s 0 -d 1 -p rtProtoDV -e 3 -c 0 -i 63 -a 0 -x {0.2 1.1 -1 ------- null}
- -t 3.76060356561123 -s 0 -d 1 -p rtProtoDV -e 3 -c 0 -i 63 -a 0 -x {0.2 1.1 -1 ------- null}
h -t 3.76060356561123 -s 0 -d 1 -p rtProtoDV -e 3 -c 0 -i 63 -a 0 -x {0.2 1.1 -1 ------- null}
+ -t 3.76060356561123 -s 0 -d 2 -p rtProtoDV -e 3 -c 0 -i 64 -a 0 -x {0.2 2.2 -1 ------- null}
- -t 3.76060356561123 -s 0 -d 2 -p rtProtoDV -e 3 -c 0 -i 64 -a 0 -x {0.2 2.2 -1 ------- null}
h -t 3.76060356561123 -s 0 -d 2 -p rtProtoDV -e 3 -c 0 -i 64 -a 0 -x {0.2 2.2 -1 ------- null}
+ -t 3.8 -s 0 -d 2 -p cbr -e 500 -c 0 -i 65 -a 0 -x {0.0 2.0 33 ------- null}
- -t 3.8 -s 0 -d 2 -p cbr -e 500 -c 0 -i 65 -a 0 -x {0.0 2.0 33 ------- null}
h -t 3.8 -s 0 -d 2 -p cbr -e 500 -c 0 -i 65 -a 0 -x {0.0 2.0 -1 ------- null}
r -t 3.84 -s 0 -d 2 -p cbr -e 500 -c 0 -i 62 -a 0 -x {0.0 2.0 32 ------- null}
r -t 3.86084356561123 -s 0 -d 1 -p rtProtoDV -e 3 -c 0 -i 63 -a 0 -x {0.2 1.1 -1 ------- null}
r -t 3.86084356561123 -s 0 -d 2 -p rtProtoDV -e 3 -c 0 -i 64 -a 0 -x {0.2 2.2 -1 ------- null}
+ -t 3.9 -s 0 -d 2 -p cbr -e 500 -c 0 -i 66 -a 0 -x {0.0 2.0 34 ------- null}
- -t 3.9 -s 0 -d 2 -p cbr -e 500 -c 0 -i 66 -a 0 -x {0.0 2.0 34 ------- null}
h -t 3.9 -s 0 -d 2 -p cbr -e 500 -c 0 -i 66 -a 0 -x {0.0 2.0 -1 ------- null}
r -t 3.94 -s 0 -d 2 -p cbr -e 500 -c 0 -i 65 -a 0 -x {0.0 2.0 33 ------- null}
+ -t 4 -s 0 -d 2 -p cbr -e 500 -c 0 -i 67 -a 0 -x {0.0 2.0 35 ------- null}
- -t 4 -s 0 -d 2 -p cbr -e 500 -c 0 -i 67 -a 0 -x {0.0 2.0 35 ------- null}
h -t 4 -s 0 -d 2 -p cbr -e 500 -c 0 -i 67 -a 0 -x {0.0 2.0 -1 ------- null}
r -t 4.04 -s 0 -d 2 -p cbr -e 500 -c 0 -i 66 -a 0 -x {0.0 2.0 34 ------- null}
+ -t 4.1 -s 0 -d 2 -p cbr -e 500 -c 0 -i 68 -a 0 -x {0.0 2.0 36 ------- null}
- -t 4.1 -s 0 -d 2 -p cbr -e 500 -c 0 -i 68 -a 0 -x {0.0 2.0 36 ------- null}